<VTKFile type="UnstructuredGrid" version="1.0" byte_order="LittleEndian" header_type="UInt64">
  <UnstructuredGrid>
    <Piece NumberOfPoints="        11" NumberOfCells="        11">
    <PointData Scalars="eta" Vectors="vel">
      <DataArray type="Float64" Name="eta" format="ascii">
   0.0000000000000000        0.0000000000000000        0.0000000000000000        0.0000000000000000        0.0000000000000000        0.0000000000000000        0.0000000000000000        0.0000000000000000        0.0000000000000000        0.0000000000000000        0.0000000000000000     
      </DataArray>
      <DataArray type="Float64" Name="depth" format="ascii">
  -0.0000000000000000       -1.0000000000000000       -2.0000000000000000       -4.0000000000000000       -6.0000000000000000       -4.0000000000000000       -3.0000000000000000       -2.0000000000000000       -1.0000000000000000       -2.0000000000000000       -3.0000000000000000     
      </DataArray>
      <DataArray type="Float64" Name="vel" NumberOfComponents="3" format="ascii">
   0.0000000000000000        0.0000000000000000                0
   0.0000000000000000        0.0000000000000000                0
   0.0000000000000000        0.0000000000000000                0
   0.0000000000000000        0.0000000000000000                0
   0.0000000000000000        0.0000000000000000                0
   0.0000000000000000        0.0000000000000000                0
   0.0000000000000000        0.0000000000000000                0
   0.0000000000000000        0.0000000000000000                0
   0.0000000000000000        0.0000000000000000                0
   0.0000000000000000        0.0000000000000000                0
   0.0000000000000000        0.0000000000000000                0
      </DataArray>
    </PointData>
    <CellData>
    </CellData>
    <Points>
      <DataArray type="Float64" Name="Points" NumberOfComponents="3" format="ascii">
   0.0000000000000000        0.0000000000000000                0
   1.0000000000000000        0.0000000000000000                0
   2.0000000000000000        0.0000000000000000                0
   3.0000000000000000        1.0000000000000000                0
   4.0000000000000000        2.0000000000000000                0
   2.0000000000000000        2.0000000000000000                0
   1.0000000000000000        2.0000000000000000                0
   0.0000000000000000        2.0000000000000000                0
   0.0000000000000000        1.0000000000000000                0
   1.0000000000000000        1.0000000000000000                0
   2.0000000000000000        1.0000000000000000                0
      </DataArray>
    </Points>
    <Cells>
      <DataArray type="Float64" Name="connectivity" format="ascii">
           1           9           0
          10           9           1
           2          10           1
           3          10           2
           4           5           3
          10           3           5
           5           6          10
           6           9          10
           6           7           9
           7           8           9
           0           9           8
      </DataArray>
      <DataArray type="Float64" Name="offsets" format="ascii">
           3
           6
           9
          12
          15
          18
          21
          24
          27
          30
          33
      </DataArray>
      <DataArray type="UInt8" Name="types" format="ascii">
           5
           5
           5
           5
           5
           5
           5
           5
           5
           5
           5
      </DataArray>
    </Cells>
    </Piece>
  </UnstructuredGrid>
</VTKFile>
